
    -----------------------------------------------------------------------
          Psi4: An Open-Source Ab Initio Electronic Structure Package
                               Psi4 1.2a1.dev1186 

                         Git: Rev {enable_gpu_dfcc} 3c352be 


    R. M. Parrish, L. A. Burns, D. G. A. Smith, A. C. Simmonett,
    A. E. DePrince III, E. G. Hohenstein, U. Bozkaya, A. Yu. Sokolov,
    R. Di Remigio, R. M. Richard, J. F. Gonthier, A. M. James,
    H. R. McAlexander, A. Kumar, M. Saitow, X. Wang, B. P. Pritchard,
    P. Verma, H. F. Schaefer III, K. Patkowski, R. A. King, E. F. Valeev,
    F. A. Evangelista, J. M. Turney, T. D. Crawford, and C. D. Sherrill,
    J. Chem. Theory Comput. 13(7) pp 3185--3197 (2017).
    (doi: 10.1021/acs.jctc.7b00174)

    -----------------------------------------------------------------------


    Psi4 started on: Thursday, 03 May 2018 09:20PM

    Process ID: 9628
    Host:       ed7
    PSIDATADIR: /edfs/users/deprince/edeprince3/psi4/install/gnu-gpu-dfcc/share/psi4
    Memory:     500.0 MiB
    Threads:    6
    
  ==> Input File <==

--------------------------------------------------------------------------
#! cc-pvdz (H2O)2 Test DF-CCSD vs GPU-DF-CCSD

sys.path.insert(0,'../../../.')

import gpu_dfcc

molecule {
           O          0.000000000000     0.000000000000    -0.068516219310   
           H          0.000000000000    -0.790689573744     0.543701060724   
           H          0.000000000000     0.790689573744     0.543701060724   
           O          5.000000000000     0.000000000000    -0.068516219310   
           H          5.000000000000    -0.790689573744     0.543701060724   
           H          5.000000000000     0.790689573744     0.543701060724   
}

memory 32000 mb
set {
  cc_timings false
  num_gpus 1
  cc_type df
  df_basis_cc  cc-pvdz-ri
  df_basis_scf cc-pvdz-jkfit
  basis        cc-pvdz
  freeze_core true
  e_convergence 1e-8
  d_convergence 1e-8
  r_convergence 1e-8
  scf_type df
  maxiter 30
}

en_dfcc     = energy('ccsd')
en_gpu_dfcc = energy('gpu-df-ccsd')

compare_values(en_gpu_dfcc, en_dfcc, 8, "CCSD total energy") # TEST

--------------------------------------------------------------------------

  Memory set to  29.802 GiB by Python driver.

*** tstart() called on ed7
*** at Thu May  3 21:20:14 2018

   => Loading Basis Set <=

    Name: CC-PVDZ
    Role: ORBITAL
    Keyword: BASIS
    atoms 1, 4     entry O          line   198 file /edfs/users/deprince/edeprince3/psi4/install/gnu-gpu-dfcc/share/psi4/basis/cc-pvdz.gbs 
    atoms 2-3, 5-6 entry H          line    22 file /edfs/users/deprince/edeprince3/psi4/install/gnu-gpu-dfcc/share/psi4/basis/cc-pvdz.gbs 

    There are an even number of electrons - assuming singlet.
    Specify the multiplicity in the molecule input block.


         ---------------------------------------------------------
                                   SCF
            by Justin Turney, Rob Parrish, Andy Simmonett
                             and Daniel Smith
                              RHF Reference
                        6 Threads,  30517 MiB Core
         ---------------------------------------------------------

  ==> Geometry <==

    Molecular point group: c2v
    Full point group: C2v

    Geometry (in Angstrom), charge = 0, multiplicity = 1:

       Center              X                  Y                   Z               Mass       
    ------------   -----------------  -----------------  -----------------  -----------------
           O         -2.500000000000    -0.000000000000    -0.068516219310    15.994914619560
           H         -2.500000000000    -0.790689573744     0.543701060724     1.007825032070
           H         -2.500000000000     0.790689573744     0.543701060724     1.007825032070
           O          2.500000000000     0.000000000000    -0.068516219310    15.994914619560
           H          2.500000000000    -0.790689573744     0.543701060724     1.007825032070
           H          2.500000000000     0.790689573744     0.543701060724     1.007825032070

  Running in c2v symmetry.

  Rotational constants: A =      4.36477  B =      0.07444  C =      0.07405 [cm^-1]
  Rotational constants: A = 130852.62639  B =   2231.51073  C =   2219.95917 [MHz]
  Nuclear repulsion =   28.110853739622517

  Charge       = 0
  Multiplicity = 1
  Electrons    = 20
  Nalpha       = 10
  Nbeta        = 10

  ==> Algorithm <==

  SCF Algorithm Type is DF.
  DIIS enabled.
  MOM disabled.
  Fractional occupation disabled.
  Guess Type is SAD.
  Energy threshold   = 1.00e-08
  Density threshold  = 1.00e-08
  Integral threshold = 0.00e+00

  ==> Primary Basis <==

  Basis Set: CC-PVDZ
    Blend: CC-PVDZ
    Number of shells: 24
    Number of basis function: 48
    Number of Cartesian functions: 50
    Spherical Harmonics?: true
    Max angular momentum: 2

   => Loading Basis Set <=

    Name: CC-PVDZ-JKFIT
    Role: JKFIT
    Keyword: DF_BASIS_SCF
    atoms 1, 4     entry O          line   221 file /edfs/users/deprince/edeprince3/psi4/install/gnu-gpu-dfcc/share/psi4/basis/cc-pvdz-jkfit.gbs 
    atoms 2-3, 5-6 entry H          line    51 file /edfs/users/deprince/edeprince3/psi4/install/gnu-gpu-dfcc/share/psi4/basis/cc-pvdz-jkfit.gbs 

  ==> Pre-Iterations <==

   -------------------------------------------------------
    Irrep   Nso     Nmo     Nalpha   Nbeta   Ndocc  Nsocc
   -------------------------------------------------------
     A1        15      15       0       0       0       0
     A2         9       9       0       0       0       0
     B1        15      15       0       0       0       0
     B2         9       9       0       0       0       0
   -------------------------------------------------------
    Total      48      48      10      10      10       0
   -------------------------------------------------------

  ==> Integral Setup <==

  ==> DFJK: Density-Fitted J/K Matrices <==

    J tasked:                  Yes
    K tasked:                  Yes
    wK tasked:                  No
    OpenMP threads:              6
    Integrals threads:           6
    Memory (MB):             22888
    Algorithm:                Core
    Integral Cache:           SAVE
    Schwarz Cutoff:          1E-12
    Fitting Condition:       1E-12

   => Auxiliary Basis Set <=

  Basis Set: CC-PVDZ-JKFIT
    Blend: CC-PVDZ-JKFIT
    Number of shells: 84
    Number of basis function: 232
    Number of Cartesian functions: 262
    Spherical Harmonics?: true
    Max angular momentum: 3

  Minimum eigenvalue in the overlap matrix is 3.7271365359E-02.
  Using Symmetric Orthogonalization.

  SCF Guess: Superposition of Atomic Densities via on-the-fly atomic UHF.

  ==> Iterations <==

                           Total Energy        Delta E     RMS |[F,P]|

   @DF-RHF iter   0:  -151.87600729919967   -1.51876e+02   8.86988e-02 
   @DF-RHF iter   1:  -151.96458119319766   -8.85739e-02   1.64846e-02 
   @DF-RHF iter   2:  -152.02410839230129   -5.95272e-02   8.60369e-03 DIIS
   @DF-RHF iter   3:  -152.04041272628831   -1.63043e-02   1.45902e-03 DIIS
   @DF-RHF iter   4:  -152.04170276643327   -1.29004e-03   4.51230e-04 DIIS
   @DF-RHF iter   5:  -152.04185745296272   -1.54687e-04   1.36026e-04 DIIS
   @DF-RHF iter   6:  -152.04186584915738   -8.39619e-06   1.54262e-05 DIIS
   @DF-RHF iter   7:  -152.04186607628685   -2.27129e-07   2.23817e-06 DIIS
   @DF-RHF iter   8:  -152.04186607982317   -3.53631e-09   3.48712e-07 DIIS
   @DF-RHF iter   9:  -152.04186607989533   -7.21627e-11   2.85123e-08 DIIS
   @DF-RHF iter  10:  -152.04186607989564   -3.12639e-13   4.46863e-09 DIIS

  ==> Post-Iterations <==

    Orbital Energies [Eh]
    ---------------------

    Doubly Occupied:                                                      

       1B1   -20.556433     1A1   -20.556433     2A1    -1.314718  
       2B1    -1.314709     1B2    -0.675656     1A2    -0.675612  
       3A1    -0.557004     3B1    -0.556987     4A1    -0.488786  
       4B1    -0.488652  

    Virtual:                                                              

       5A1     0.173776     5B1     0.183564     2B2     0.246319  
       2A2     0.253571     3B2     0.759260     3A2     0.763779  
       6A1     0.812193     6B1     0.822100     7A1     1.167960  
       7B1     1.168113     8A1     1.200116     8B1     1.200906  
       4B2     1.256466     4A2     1.260061     9A1     1.453600  
       9B1     1.455267     5B2     1.467595     5A2     1.467595  
      10A1     1.669686    10B1     1.670063    11A1     1.877662  
      11B1     1.880296     6A2     1.891516     6B2     1.891573  
       7B2     2.355168     7A2     2.357184    12A1     2.388948  
      12B1     2.390528    13A1     3.250987    13B1     3.251083  
       8A2     3.299947     8B2     3.299947    14B1     3.456130  
      14A1     3.456141    15A1     3.822947    15B1     3.824098  
       9B2     4.100296     9A2     4.101477  

    Final Occupation by Irrep:
             A1    A2    B1    B2 
    DOCC [     4,    1,    4,    1 ]

  Energy converged.

  @DF-RHF Final Energy:  -152.04186607989564

   => Energetics <=

    Nuclear Repulsion Energy =             28.1108537396225167
    One-Electron Energy =                -265.9354592431750461
    Two-Electron Energy =                  85.7827394236568921
    PCM Polarization Energy =               0.0000000000000000
    Total Energy =                       -152.0418660798956410

    Alert: EFP and PCM quantities not currently incorporated into SCF psivars.

Properties will be evaluated at   0.000000,   0.000000,   0.000000 [a0]

Properties computed using the SCF density matrix

  Nuclear Dipole Moment: [e a0]
     X:     0.0000      Y:     0.0000      Z:     2.0382

  Electronic Dipole Moment: [e a0]
     X:     0.0000      Y:     0.0000      Z:    -0.3999

  Dipole Moment: [e a0]
     X:     0.0000      Y:     0.0000      Z:     1.6382     Total:     1.6382

  Dipole Moment: [D]
     X:     0.0000      Y:     0.0000      Z:     4.1640     Total:     4.1640


*** tstop() called on ed7 at Thu May  3 21:20:17 2018
Module time:
	user time   =       9.52 seconds =       0.16 minutes
	system time =      11.47 seconds =       0.19 minutes
	total time  =          3 seconds =       0.05 minutes
Total time:
	user time   =       9.52 seconds =       0.16 minutes
	system time =      11.47 seconds =       0.19 minutes
	total time  =          3 seconds =       0.05 minutes
  A requested method does not make use of molecular symmetry: further calculations in C1 point group.
   => Loading Basis Set <=

    Name: CC-PVDZ
    Role: ORBITAL
    Keyword: BASIS
    atoms 1, 4     entry O          line   198 file /edfs/users/deprince/edeprince3/psi4/install/gnu-gpu-dfcc/share/psi4/basis/cc-pvdz.gbs 
    atoms 2-3, 5-6 entry H          line    22 file /edfs/users/deprince/edeprince3/psi4/install/gnu-gpu-dfcc/share/psi4/basis/cc-pvdz.gbs 


         ---------------------------------------------------------
                                   SCF
            by Justin Turney, Rob Parrish, Andy Simmonett
                             and Daniel Smith
                              RHF Reference
                        6 Threads,  30517 MiB Core
         ---------------------------------------------------------

  ==> Geometry <==

    Molecular point group: c1
    Full point group: C2v

    Geometry (in Angstrom), charge = 0, multiplicity = 1:

       Center              X                  Y                   Z               Mass       
    ------------   -----------------  -----------------  -----------------  -----------------
           O         -2.500000000000    -0.000000000000    -0.068516219310    15.994914619560
           H         -2.500000000000    -0.790689573744     0.543701060724     1.007825032070
           H         -2.500000000000     0.790689573744     0.543701060724     1.007825032070
           O          2.500000000000     0.000000000000    -0.068516219310    15.994914619560
           H          2.500000000000    -0.790689573744     0.543701060724     1.007825032070
           H          2.500000000000     0.790689573744     0.543701060724     1.007825032070

  Running in c1 symmetry.

  Rotational constants: A =      4.36477  B =      0.07444  C =      0.07405 [cm^-1]
  Rotational constants: A = 130852.62639  B =   2231.51073  C =   2219.95917 [MHz]
  Nuclear repulsion =   28.110853739622517

  Charge       = 0
  Multiplicity = 1
  Electrons    = 20
  Nalpha       = 10
  Nbeta        = 10

  ==> Algorithm <==

  SCF Algorithm Type is DF.
  DIIS enabled.
  MOM disabled.
  Fractional occupation disabled.
  Guess Type is AUTO.
  Energy threshold   = 1.00e-08
  Density threshold  = 1.00e-08
  Integral threshold = 0.00e+00

  ==> Primary Basis <==

  Basis Set: CC-PVDZ
    Blend: CC-PVDZ
    Number of shells: 24
    Number of basis function: 48
    Number of Cartesian functions: 50
    Spherical Harmonics?: true
    Max angular momentum: 2

   => Loading Basis Set <=

    Name: CC-PVDZ-JKFIT
    Role: JKFIT
    Keyword: DF_BASIS_SCF
    atoms 1, 4     entry O          line   221 file /edfs/users/deprince/edeprince3/psi4/install/gnu-gpu-dfcc/share/psi4/basis/cc-pvdz-jkfit.gbs 
    atoms 2-3, 5-6 entry H          line    51 file /edfs/users/deprince/edeprince3/psi4/install/gnu-gpu-dfcc/share/psi4/basis/cc-pvdz-jkfit.gbs 

   => Loading Basis Set <=

    Name: CC-PVDZ-JKFIT
    Role: JKFIT
    Keyword: DF_BASIS_SCF
    atoms 1, 4     entry O          line   221 file /edfs/users/deprince/edeprince3/psi4/install/gnu-gpu-dfcc/share/psi4/basis/cc-pvdz-jkfit.gbs 
    atoms 2-3, 5-6 entry H          line    51 file /edfs/users/deprince/edeprince3/psi4/install/gnu-gpu-dfcc/share/psi4/basis/cc-pvdz-jkfit.gbs 

   => Loading Basis Set <=

    Name: CC-PVDZ-RI
    Role: RIFIT
    Keyword: DF_BASIS_CC
    atoms 1, 4     entry O          line   235 file /edfs/users/deprince/edeprince3/psi4/install/gnu-gpu-dfcc/share/psi4/basis/cc-pvdz-ri.gbs 
    atoms 2-3, 5-6 entry H          line    19 file /edfs/users/deprince/edeprince3/psi4/install/gnu-gpu-dfcc/share/psi4/basis/cc-pvdz-ri.gbs 


*** tstart() called on ed7
*** at Thu May  3 21:20:17 2018



        *******************************************************
        *                                                     *
        *                       DF-CCSD                       *
        *                 Density-fitted CCSD                 *
        *                                                     *
        *                   Eugene DePrince                   *
        *                                                     *
        *******************************************************


  ==> 3-index integrals <==

  ==> DF Tensor (by Rob Parrish) <==

 => Primary Basis Set <= 

  Basis Set: CC-PVDZ
    Blend: CC-PVDZ
    Number of shells: 24
    Number of basis function: 48
    Number of Cartesian functions: 50
    Spherical Harmonics?: true
    Max angular momentum: 2

 => Auxiliary Basis Set <= 

  Basis Set: CC-PVDZ-RI
    Blend: CC-PVDZ-RI
    Number of shells: 60
    Number of basis function: 168
    Number of Cartesian functions: 192
    Spherical Harmonics?: true
    Max angular momentum: 3

    Number of auxiliary functions:         168

  ==> Memory <==

        Total memory available:           30517.58 mb

        CCSD memory requirements:             9.36 mb
            3-index integrals:                3.03 mb
            CCSD intermediates:               6.33 mb

  ==> Input parameters <==

        Freeze core orbitals?                 yes
        Use frozen natural orbitals?           no
        r_convergence:                  1.000e-08
        e_convergence:                  1.000e-08
        Number of DIIS vectors:                 8
        Number of frozen core orbitals:         2
        Number of active occupied orbitals:     8
        Number of active virtual orbitals:     38
        Number of frozen virtual orbitals:      0


  Begin singles and doubles coupled cluster iterations

   Iter  DIIS          Energy       d(Energy)          |d(T)|     time
      0   0 1   -0.4094313920   -0.4094313920    0.2810358039        0
      1   1 1   -0.4190852139   -0.0096538219    0.0405306966        0
      2   2 1   -0.4262477623   -0.0071625484    0.0148578486        0
      3   3 1   -0.4289076547   -0.0026598924    0.0058400150        0
      4   4 1   -0.4289345915   -0.0000269368    0.0009881297        0
      5   5 1   -0.4289616305   -0.0000270390    0.0003242051        0
      6   6 1   -0.4289559936    0.0000056369    0.0001111576        0
      7   7 1   -0.4289550183    0.0000009753    0.0000305906        1
      8   8 1   -0.4289547733    0.0000002450    0.0000098911        0
      9   8 2   -0.4289545289    0.0000002444    0.0000023466        0
     10   8 3   -0.4289545275    0.0000000014    0.0000008222        0
     11   8 4   -0.4289545419   -0.0000000144    0.0000003430        0
     12   8 5   -0.4289545469   -0.0000000051    0.0000000581        0
     13   8 6   -0.4289545499   -0.0000000030    0.0000000188        0
     14   8 7   -0.4289545505   -0.0000000005    0.0000000095        0

  CCSD iterations converged!

        T1 diagnostic:                        0.006637513926
        D1 diagnostic:                        0.013105534549

        OS MP2 correlation energy:           -0.306911098725
        SS MP2 correlation energy:           -0.102520293270
        MP2 correlation energy:              -0.409431391994
      * MP2 total energy:                  -152.451297471890

        OS CCSD correlation energy:          -0.338514208182
        SS CCSD correlation energy:          -0.090440342277
        CCSD correlation energy:             -0.428954550459
      * CCSD total energy:                 -152.470820630355

  Total time for CCSD iterations:       4.88 s (user)
                                        1.74 s (system)
                                           1 s (total)

  Time per iteration:                   0.35 s (user)
                                        0.12 s (system)
                                        0.07 s (total)

*** tstop() called on ed7 at Thu May  3 21:20:18 2018
Module time:
	user time   =       5.25 seconds =       0.09 minutes
	system time =       2.02 seconds =       0.03 minutes
	total time  =          1 seconds =       0.02 minutes
Total time:
	user time   =      15.46 seconds =       0.26 minutes
	system time =      14.57 seconds =       0.24 minutes
	total time  =          4 seconds =       0.07 minutes

*** tstop() called on ed7 at Thu May  3 21:20:18 2018
Module time:
	user time   =       5.25 seconds =       0.09 minutes
	system time =       2.02 seconds =       0.03 minutes
	total time  =          1 seconds =       0.02 minutes
Total time:
	user time   =      15.46 seconds =       0.26 minutes
	system time =      14.57 seconds =       0.24 minutes
	total time  =          4 seconds =       0.07 minutes

*** tstart() called on ed7
*** at Thu May  3 21:20:18 2018

   => Loading Basis Set <=

    Name: CC-PVDZ
    Role: ORBITAL
    Keyword: BASIS
    atoms 1, 4     entry O          line   198 file /edfs/users/deprince/edeprince3/psi4/install/gnu-gpu-dfcc/share/psi4/basis/cc-pvdz.gbs 
    atoms 2-3, 5-6 entry H          line    22 file /edfs/users/deprince/edeprince3/psi4/install/gnu-gpu-dfcc/share/psi4/basis/cc-pvdz.gbs 


         ---------------------------------------------------------
                                   SCF
            by Justin Turney, Rob Parrish, Andy Simmonett
                             and Daniel Smith
                              RHF Reference
                        6 Threads,  30517 MiB Core
         ---------------------------------------------------------

  ==> Geometry <==

    Molecular point group: c2v
    Full point group: C2v

    Geometry (in Angstrom), charge = 0, multiplicity = 1:

       Center              X                  Y                   Z               Mass       
    ------------   -----------------  -----------------  -----------------  -----------------
           O         -2.500000000000    -0.000000000000    -0.068516219310    15.994914619560
           H         -2.500000000000    -0.790689573744     0.543701060724     1.007825032070
           H         -2.500000000000     0.790689573744     0.543701060724     1.007825032070
           O          2.500000000000     0.000000000000    -0.068516219310    15.994914619560
           H          2.500000000000    -0.790689573744     0.543701060724     1.007825032070
           H          2.500000000000     0.790689573744     0.543701060724     1.007825032070

  Running in c2v symmetry.

  Rotational constants: A =      4.36477  B =      0.07444  C =      0.07405 [cm^-1]
  Rotational constants: A = 130852.62639  B =   2231.51073  C =   2219.95917 [MHz]
  Nuclear repulsion =   28.110853739622517

  Charge       = 0
  Multiplicity = 1
  Electrons    = 20
  Nalpha       = 10
  Nbeta        = 10

  ==> Algorithm <==

  SCF Algorithm Type is DF.
  DIIS enabled.
  MOM disabled.
  Fractional occupation disabled.
  Guess Type is SAD.
  Energy threshold   = 1.00e-08
  Density threshold  = 1.00e-08
  Integral threshold = 0.00e+00

  ==> Primary Basis <==

  Basis Set: CC-PVDZ
    Blend: CC-PVDZ
    Number of shells: 24
    Number of basis function: 48
    Number of Cartesian functions: 50
    Spherical Harmonics?: true
    Max angular momentum: 2

   => Loading Basis Set <=

    Name: CC-PVDZ-JKFIT
    Role: JKFIT
    Keyword: DF_BASIS_SCF
    atoms 1, 4     entry O          line   221 file /edfs/users/deprince/edeprince3/psi4/install/gnu-gpu-dfcc/share/psi4/basis/cc-pvdz-jkfit.gbs 
    atoms 2-3, 5-6 entry H          line    51 file /edfs/users/deprince/edeprince3/psi4/install/gnu-gpu-dfcc/share/psi4/basis/cc-pvdz-jkfit.gbs 

  ==> Pre-Iterations <==

   -------------------------------------------------------
    Irrep   Nso     Nmo     Nalpha   Nbeta   Ndocc  Nsocc
   -------------------------------------------------------
     A1        15      15       0       0       0       0
     A2         9       9       0       0       0       0
     B1        15      15       0       0       0       0
     B2         9       9       0       0       0       0
   -------------------------------------------------------
    Total      48      48      10      10      10       0
   -------------------------------------------------------

  ==> Integral Setup <==

  ==> DFJK: Density-Fitted J/K Matrices <==

    J tasked:                  Yes
    K tasked:                  Yes
    wK tasked:                  No
    OpenMP threads:              6
    Integrals threads:           6
    Memory (MB):             22888
    Algorithm:                Core
    Integral Cache:           SAVE
    Schwarz Cutoff:          1E-12
    Fitting Condition:       1E-12

   => Auxiliary Basis Set <=

  Basis Set: CC-PVDZ-JKFIT
    Blend: CC-PVDZ-JKFIT
    Number of shells: 84
    Number of basis function: 232
    Number of Cartesian functions: 262
    Spherical Harmonics?: true
    Max angular momentum: 3

  Minimum eigenvalue in the overlap matrix is 3.7271365359E-02.
  Using Symmetric Orthogonalization.

  SCF Guess: Superposition of Atomic Densities via on-the-fly atomic UHF.

  ==> Iterations <==

                           Total Energy        Delta E     RMS |[F,P]|

   @DF-RHF iter   0:  -151.87600729920214   -1.51876e+02   8.86988e-02 
   @DF-RHF iter   1:  -151.96458119320022   -8.85739e-02   1.63630e-02 
   @DF-RHF iter   2:  -152.02410839230373   -5.95272e-02   8.73308e-03 DIIS
   @DF-RHF iter   3:  -152.04041272629078   -1.63043e-02   1.45902e-03 DIIS
   @DF-RHF iter   4:  -152.04170276643575   -1.29004e-03   4.51230e-04 DIIS
   @DF-RHF iter   5:  -152.04185745296519   -1.54687e-04   9.23360e-05 DIIS
   @DF-RHF iter   6:  -152.04186584915993   -8.39619e-06   1.54262e-05 DIIS
   @DF-RHF iter   7:  -152.04186607628935   -2.27129e-07   2.23817e-06 DIIS
   @DF-RHF iter   8:  -152.04186607982558   -3.53623e-09   3.48712e-07 DIIS
   @DF-RHF iter   9:  -152.04186607989777   -7.21911e-11   2.85123e-08 DIIS
   @DF-RHF iter  10:  -152.04186607989817   -3.97904e-13   4.46864e-09 DIIS

  ==> Post-Iterations <==

    Orbital Energies [Eh]
    ---------------------

    Doubly Occupied:                                                      

       1B1   -20.556433     1A1   -20.556433     2A1    -1.314718  
       2B1    -1.314709     1B2    -0.675656     1A2    -0.675612  
       3A1    -0.557004     3B1    -0.556987     4A1    -0.488786  
       4B1    -0.488652  

    Virtual:                                                              

       5A1     0.173776     5B1     0.183564     2B2     0.246319  
       2A2     0.253571     3B2     0.759260     3A2     0.763779  
       6A1     0.812193     6B1     0.822100     7A1     1.167960  
       7B1     1.168113     8A1     1.200116     8B1     1.200906  
       4B2     1.256466     4A2     1.260061     9A1     1.453600  
       9B1     1.455267     5B2     1.467595     5A2     1.467595  
      10A1     1.669686    10B1     1.670063    11A1     1.877662  
      11B1     1.880296     6A2     1.891516     6B2     1.891573  
       7B2     2.355168     7A2     2.357184    12A1     2.388948  
      12B1     2.390528    13A1     3.250987    13B1     3.251083  
       8A2     3.299947     8B2     3.299947    14B1     3.456130  
      14A1     3.456141    15A1     3.822947    15B1     3.824098  
       9B2     4.100296     9A2     4.101477  

    Final Occupation by Irrep:
             A1    A2    B1    B2 
    DOCC [     4,    1,    4,    1 ]

  Energy converged.

  @DF-RHF Final Energy:  -152.04186607989817

   => Energetics <=

    Nuclear Repulsion Energy =             28.1108537396225167
    One-Electron Energy =                -265.9354592431728861
    Two-Electron Energy =                  85.7827394236522167
    PCM Polarization Energy =               0.0000000000000000
    Total Energy =                       -152.0418660798981705

    Alert: EFP and PCM quantities not currently incorporated into SCF psivars.

Properties will be evaluated at   0.000000,   0.000000,   0.000000 [a0]

Properties computed using the SCF density matrix

  Nuclear Dipole Moment: [e a0]
     X:     0.0000      Y:     0.0000      Z:     2.0382

  Electronic Dipole Moment: [e a0]
     X:     0.0000      Y:     0.0000      Z:    -0.3999

  Dipole Moment: [e a0]
     X:     0.0000      Y:     0.0000      Z:     1.6382     Total:     1.6382

  Dipole Moment: [D]
     X:     0.0000      Y:     0.0000      Z:     4.1640     Total:     4.1640


*** tstop() called on ed7 at Thu May  3 21:20:21 2018
Module time:
	user time   =      10.50 seconds =       0.17 minutes
	system time =      16.73 seconds =       0.28 minutes
	total time  =          3 seconds =       0.05 minutes
Total time:
	user time   =      25.99 seconds =       0.43 minutes
	system time =      31.33 seconds =       0.52 minutes
	total time  =          7 seconds =       0.12 minutes
  A requested method does not make use of molecular symmetry: further calculations in C1 point group.
   => Loading Basis Set <=

    Name: CC-PVDZ
    Role: ORBITAL
    Keyword: BASIS
    atoms 1, 4     entry O          line   198 file /edfs/users/deprince/edeprince3/psi4/install/gnu-gpu-dfcc/share/psi4/basis/cc-pvdz.gbs 
    atoms 2-3, 5-6 entry H          line    22 file /edfs/users/deprince/edeprince3/psi4/install/gnu-gpu-dfcc/share/psi4/basis/cc-pvdz.gbs 


         ---------------------------------------------------------
                                   SCF
            by Justin Turney, Rob Parrish, Andy Simmonett
                             and Daniel Smith
                              RHF Reference
                        6 Threads,  30517 MiB Core
         ---------------------------------------------------------

  ==> Geometry <==

    Molecular point group: c1
    Full point group: C2v

    Geometry (in Angstrom), charge = 0, multiplicity = 1:

       Center              X                  Y                   Z               Mass       
    ------------   -----------------  -----------------  -----------------  -----------------
           O         -2.500000000000    -0.000000000000    -0.068516219310    15.994914619560
           H         -2.500000000000    -0.790689573744     0.543701060724     1.007825032070
           H         -2.500000000000     0.790689573744     0.543701060724     1.007825032070
           O          2.500000000000     0.000000000000    -0.068516219310    15.994914619560
           H          2.500000000000    -0.790689573744     0.543701060724     1.007825032070
           H          2.500000000000     0.790689573744     0.543701060724     1.007825032070

  Running in c1 symmetry.

  Rotational constants: A =      4.36477  B =      0.07444  C =      0.07405 [cm^-1]
  Rotational constants: A = 130852.62639  B =   2231.51073  C =   2219.95917 [MHz]
  Nuclear repulsion =   28.110853739622527

  Charge       = 0
  Multiplicity = 1
  Electrons    = 20
  Nalpha       = 10
  Nbeta        = 10

  ==> Algorithm <==

  SCF Algorithm Type is DF.
  DIIS enabled.
  MOM disabled.
  Fractional occupation disabled.
  Guess Type is AUTO.
  Energy threshold   = 1.00e-08
  Density threshold  = 1.00e-08
  Integral threshold = 0.00e+00

  ==> Primary Basis <==

  Basis Set: CC-PVDZ
    Blend: CC-PVDZ
    Number of shells: 24
    Number of basis function: 48
    Number of Cartesian functions: 50
    Spherical Harmonics?: true
    Max angular momentum: 2

   => Loading Basis Set <=

    Name: CC-PVDZ-JKFIT
    Role: JKFIT
    Keyword: DF_BASIS_SCF
    atoms 1, 4     entry O          line   221 file /edfs/users/deprince/edeprince3/psi4/install/gnu-gpu-dfcc/share/psi4/basis/cc-pvdz-jkfit.gbs 
    atoms 2-3, 5-6 entry H          line    51 file /edfs/users/deprince/edeprince3/psi4/install/gnu-gpu-dfcc/share/psi4/basis/cc-pvdz-jkfit.gbs 

   => Loading Basis Set <=

    Name: CC-PVDZ-JKFIT
    Role: JKFIT
    Keyword: DF_BASIS_SCF
    atoms 1, 4     entry O          line   221 file /edfs/users/deprince/edeprince3/psi4/install/gnu-gpu-dfcc/share/psi4/basis/cc-pvdz-jkfit.gbs 
    atoms 2-3, 5-6 entry H          line    51 file /edfs/users/deprince/edeprince3/psi4/install/gnu-gpu-dfcc/share/psi4/basis/cc-pvdz-jkfit.gbs 

   => Loading Basis Set <=

    Name: CC-PVDZ-RI
    Role: RIFIT
    Keyword: DF_BASIS_CC
    atoms 1, 4     entry O          line   235 file /edfs/users/deprince/edeprince3/psi4/install/gnu-gpu-dfcc/share/psi4/basis/cc-pvdz-ri.gbs 
    atoms 2-3, 5-6 entry H          line    19 file /edfs/users/deprince/edeprince3/psi4/install/gnu-gpu-dfcc/share/psi4/basis/cc-pvdz-ri.gbs 


Reading options from the GPU_DFCC block
Calling plugin gpu_dfcc.so.


  ==> 3-index integrals <==

  ==> DF Tensor (by Rob Parrish) <==

 => Primary Basis Set <= 

  Basis Set: CC-PVDZ
    Blend: CC-PVDZ
    Number of shells: 24
    Number of basis function: 48
    Number of Cartesian functions: 50
    Spherical Harmonics?: true
    Max angular momentum: 2

 => Auxiliary Basis Set <= 

  Basis Set: CC-PVDZ-RI
    Blend: CC-PVDZ-RI
    Number of shells: 60
    Number of basis function: 168
    Number of Cartesian functions: 192
    Spherical Harmonics?: true
    Max angular momentum: 3

    Number of auxiliary functions:         168


  _________________________________________________________
  CUDA device properties:
  name:                         Quadro GP100
  major version:                           6
  minor version:                           0
  canMapHostMemory:                        1
  totalGlobalMem:                      16278 mb
  sharedMemPerBlock:                   49152
  clockRate:                           1.442 ghz
  regsPerBlock:                        65536
  warpSize:                               32
  maxThreadsPerBlock:                   1024
  _________________________________________________________


  allocating gpu memory...  Total memory requirements:            9.54 mb
  3-index integrals:                    3.21 mb
  CCSD intermediates:                   6.33 mb


  Begin singles and doubles coupled cluster iterations

   Iter  DIIS          Energy       d(Energy)          |d(T)|     time
      0   0 1   -0.4094313920   -0.4094313920    0.2810358039        0
      1   1 1   -0.4190852139   -0.0096538219    0.0405306966        1
      2   2 1   -0.4262477623   -0.0071625484    0.0148578486        0
      3   3 1   -0.4289076547   -0.0026598924    0.0058400150        0
      4   4 1   -0.4289345915   -0.0000269368    0.0009881297        0
      5   5 1   -0.4289616305   -0.0000270390    0.0003242051        0
      6   6 1   -0.4289559936    0.0000056369    0.0001111576        0
      7   7 1   -0.4289550183    0.0000009753    0.0000305906        0
      8   8 1   -0.4289547733    0.0000002450    0.0000098911        0
      9   8 2   -0.4289545289    0.0000002444    0.0000023466        1
     10   8 3   -0.4289545275    0.0000000014    0.0000008222        0
     11   8 4   -0.4289545419   -0.0000000144    0.0000003430        0
     12   8 5   -0.4289545469   -0.0000000051    0.0000000581        0
     13   8 6   -0.4289545499   -0.0000000030    0.0000000188        0
     14   8 7   -0.4289545505   -0.0000000005    0.0000000095        0

  CCSD iterations converged!

        T1 diagnostic:                        0.006637513926
        D1 diagnostic:                        0.013105534549

        OS MP2 correlation energy:           -0.306911098725
        SS MP2 correlation energy:           -0.102520293270
        MP2 correlation energy:              -0.409431391994
      * MP2 total energy:                  -152.451297471892

        OS CCSD correlation energy:          -0.338514208182
        SS CCSD correlation energy:          -0.090440342277
        CCSD correlation energy:             -0.428954550459
      * CCSD total energy:                 -152.470820630357

  Total time for CCSD iterations:       9.46 s (user)
                                       13.70 s (system)
                                           2 s (total)

  Time per iteration:                   0.68 s (user)
                                        0.98 s (system)
                                        0.14 s (total)

*** tstop() called on ed7 at Thu May  3 21:20:27 2018
Module time:
	user time   =      21.14 seconds =       0.35 minutes
	system time =      35.01 seconds =       0.58 minutes
	total time  =          9 seconds =       0.15 minutes
Total time:
	user time   =      36.63 seconds =       0.61 minutes
	system time =      49.61 seconds =       0.83 minutes
	total time  =         13 seconds =       0.22 minutes
	CCSD total energy.................................................PASSED

    Psi4 stopped on: Thursday, 03 May 2018 09:20PM
    Psi4 wall time for execution: 0:00:13.22

*** Psi4 exiting successfully. Buy a developer a beer!
